LAMMPS data file via write_data, version 17 Nov 2016, timestep = 333

1 atoms
1 atom types

6.5647340674508925e-01 3.3435265932549139e+00 xlo xhi
6.5647340674508925e-01 3.3435265932549139e+00 ylo yhi
6.5647340674508925e-01 3.3435265932549139e+00 zlo zhi

Masses

1 26.982

Atoms # atomic

1 1 6.5647340674508925e-01 6.5647340674508925e-01 6.5647340674508925e-01 0 0 0

Velocities

1 0.0000000000000000e+00 0.0000000000000000e+00 0.0000000000000000e+00
