LAMMPS data file via write_data, version 17 Nov 2016, timestep = 17

4 atoms
1 atom types

-2.4881763080186411e-02 4.0248817630801836e+00 xlo xhi
-2.4881763080186411e-02 4.0248817630801836e+00 ylo yhi
-2.4881763080186411e-02 4.0248817630801836e+00 zlo zhi

Masses

1 26.982

Atoms # atomic

1 1 -2.4881763080186303e-02 -2.4881763080186303e-02 -2.4881763080186303e-02 0 0 0
2 1 1.9999999999999987e+00 1.9999999999999987e+00 -2.4881763080186303e-02 0 0 0
3 1 1.9999999999999987e+00 -2.4881763080186303e-02 1.9999999999999987e+00 0 0 0
4 1 -2.4881763080186303e-02 1.9999999999999987e+00 1.9999999999999987e+00 0 0 0

Velocities

1 0.0000000000000000e+00 0.0000000000000000e+00 0.0000000000000000e+00
2 0.0000000000000000e+00 0.0000000000000000e+00 0.0000000000000000e+00
3 0.0000000000000000e+00 0.0000000000000000e+00 0.0000000000000000e+00
4 0.0000000000000000e+00 0.0000000000000000e+00 0.0000000000000000e+00
