LAMMPS data file via write_data, version 17 Nov 2016, timestep = 204

2 atoms
1 atom types

3.9044401835536963e-01 3.6095559816446330e+00 xlo xhi
3.9044401835536963e-01 3.6095559816446330e+00 ylo yhi
3.9044401835536963e-01 3.6095559816446330e+00 zlo zhi

Masses

1 26.982

Atoms # atomic

1 1 3.9044401835537423e-01 3.9044401835537423e-01 3.9044401835537429e-01 0 0 0
2 1 2.0000000000000058e+00 2.0000000000000058e+00 2.0000000000000058e+00 0 0 0

Velocities

1 0.0000000000000000e+00 0.0000000000000000e+00 0.0000000000000000e+00
2 0.0000000000000000e+00 0.0000000000000000e+00 0.0000000000000000e+00
