LAMMPS (17 Nov 2016)
Lattice spacing in x,y,z = 3.4 3.4 3.4
Created orthogonal box = (0 0 0) to (3.4 3.4 3.4)
  1 by 1 by 1 MPI processor grid
Lattice spacing in x,y,z = 3.4 3.4 3.4
Created 4 atoms
Replicating atoms ...
  orthogonal box = (0 0 0) to (3.4 3.4 3.4)
  1 by 1 by 1 MPI processor grid
  4 atoms
Reading potential file LAMMPS_POTENTIALS/AlCu.eam.alloy with DATE: 2008-10-01
WARNING: Resetting reneighboring criteria during minimization (../min.cpp:168)
Neighbor list info ...
  1 neighbor list requests
  update every 1 steps, delay 0 steps, check yes
  max neighbors/atom: 2000, page size: 100000
  master list distance cutoff = 8.6825
  ghost atom cutoff = 8.6825
  binsize = 4.34125, bins = 1 1 1
Setting up cg style minimization ...
  Unit style    : metal
Memory usage per processor = 3.91479 Mbytes
Step PotEng Lx Ly Lz Press Pxx Pyy Pzz c_eatoms 
       0   -6.2754944          3.4          3.4          3.4    1340115.8    1340115.8    1340115.8    1340115.8   -6.2754944 
Loop time of 9.53674e-07 on 1 procs for 0 steps with 4 atoms

0.0% CPU use with 1 MPI tasks x no OpenMP threads

Minimization stats:
  Stopping criterion = max iterations
  Energy initial, next-to-last, final = 
         -6.2754943895 6.58676066208e-317      -6.2754943895
  Force two-norm initial, final = 98.6257 98.6257
  Force max component initial, final = 98.6257 98.6257
  Final line search alpha, max atom move = 0 0
  Iterations, force evaluations = 0 0

MPI task timing breakdown:
Section |  min time  |  avg time  |  max time  |%varavg| %total
---------------------------------------------------------------
Pair    | 0          | 0          | 0          |   0.0 |  0.00
Neigh   | 0          | 0          | 0          |   0.0 |  0.00
Comm    | 0          | 0          | 0          |   0.0 |  0.00
Output  | 0          | 0          | 0          |   0.0 |  0.00
Modify  | 0          | 0          | 0          |   0.0 |  0.00
Other   |            | 9.537e-07  |            |       |100.00

Nlocal:    4 ave 4 max 4 min
Histogram: 1 0 0 0 0 0 0 0 0 0
Nghost:    1094 ave 1094 max 1094 min
Histogram: 1 0 0 0 0 0 0 0 0 0
Neighs:    640 ave 640 max 640 min
Histogram: 1 0 0 0 0 0 0 0 0 0

Total # of neighbors = 640
Ave neighs/atom = 160
Neighbor list builds = 0
Dangerous builds = 0
System init for write_data ...
Neighbor list info ...
  1 neighbor list requests
  update every 1 steps, delay 10 steps, check yes
  max neighbors/atom: 2000, page size: 100000
  master list distance cutoff = 8.6825
  ghost atom cutoff = 8.6825
  binsize = 4.34125, bins = 1 1 1
ERROR: Compute used in variable between runs is not current (../variable.cpp:1301)
-------------------------------------------------------
Primary job  terminated normally, but 1 process returned
a non-zero exit code.. Per user-direction, the job has been aborted.
-------------------------------------------------------
--------------------------------------------------------------------------
mpirun detected that one or more processes exited with non-zero status, thus causing
the job to be terminated. The first process to do so was:

  Process name: [[57165,1],0]
  Exit code:    1
--------------------------------------------------------------------------
