LAMMPS data file via write_data, version 17 Nov 2016, timestep = 0

4 atoms
1 atom types

0.0000000000000000e+00 4.4400000000000004e+00 xlo xhi
0.0000000000000000e+00 4.4400000000000004e+00 ylo yhi
0.0000000000000000e+00 4.4400000000000004e+00 zlo zhi

Masses

1 26.982

Atoms # atomic

1 1 0.0000000000000000e+00 0.0000000000000000e+00 0.0000000000000000e+00 0 0 0
2 1 2.2200000000000002e+00 2.2200000000000002e+00 0.0000000000000000e+00 0 0 0
3 1 2.2200000000000002e+00 0.0000000000000000e+00 2.2200000000000002e+00 0 0 0
4 1 0.0000000000000000e+00 2.2200000000000002e+00 2.2200000000000002e+00 0 0 0

Velocities

1 0.0000000000000000e+00 0.0000000000000000e+00 0.0000000000000000e+00
2 0.0000000000000000e+00 0.0000000000000000e+00 0.0000000000000000e+00
3 0.0000000000000000e+00 0.0000000000000000e+00 0.0000000000000000e+00
4 0.0000000000000000e+00 0.0000000000000000e+00 0.0000000000000000e+00
