LAMMPS data file via write_data, version 17 Nov 2016, timestep = 0

2 atoms
1 atom types

-5.0000000000000000e+00 5.0000000000000000e+00 xlo xhi
-5.0000000000000000e+00 5.0000000000000000e+00 ylo yhi
-5.0000000000000000e+00 5.0000000000000000e+00 zlo zhi

Masses

1 1

Pair Coeffs # lj/cut

1 1 1

Atoms # atomic

1 1 0.0000000000000000e+00 0.0000000000000000e+00 0.0000000000000000e+00 0 0 0
2 1 1.5200000000000000e+00 0.0000000000000000e+00 0.0000000000000000e+00 0 0 0

Velocities

1 0.0000000000000000e+00 0.0000000000000000e+00 0.0000000000000000e+00
2 0.0000000000000000e+00 0.0000000000000000e+00 0.0000000000000000e+00
