LAMMPS (17 Nov 2016)
Lattice spacing in x,y,z = 4 4 4
Created orthogonal box = (0 0 0) to (4 4 4)
  1 by 1 by 1 MPI processor grid
Lattice spacing in x,y,z = 4 4 4
Created 2 atoms
Replicating atoms ...
  orthogonal box = (0 0 0) to (4 4 4)
  1 by 1 by 1 MPI processor grid
  2 atoms
Reading potential file LAMMPS_POTENTIALS/AlCu.eam.alloy with DATE: 2008-10-01
WARNING: Resetting reneighboring criteria during minimization (../min.cpp:168)
Neighbor list info ...
  1 neighbor list requests
  update every 1 steps, delay 0 steps, check yes
  max neighbors/atom: 2000, page size: 100000
  master list distance cutoff = 8.6825
  ghost atom cutoff = 8.6825
  binsize = 4.34125, bins = 1 1 1
Setting up cg style minimization ...
  Unit style    : metal
Memory usage per processor = 3.90684 Mbytes
Step PotEng Lx Ly Lz Press Pxx Pyy Pzz c_eatoms 
       0   -4.3070919            4            4            4   -251761.28   -251761.28   -251761.28   -251761.28   -4.3070919 
      10   -4.6070493         3.96         3.96         3.96   -252410.36   -252410.36   -252410.36   -252410.36   -4.6070493 
      20   -4.8957933         3.92         3.92         3.92   -241988.16   -241988.16   -241988.16   -241988.16   -4.8957933 
      30   -5.1587464         3.88         3.88         3.88   -218635.45   -218635.45   -218635.45   -218635.45   -5.1587464 
      40   -5.3887596         3.84         3.84         3.84   -190504.94   -190504.94   -190504.94   -190504.94   -5.3887596 
      50   -5.5789269          3.8          3.8          3.8    -156501.4    -156501.4    -156501.4    -156501.4   -5.5789269 
      60   -5.7263766         3.76         3.76         3.76   -118490.44   -118490.44   -118490.44   -118490.44   -5.7263766 
      70   -5.8302829         3.72         3.72         3.72    -80098.85    -80098.85    -80098.85    -80098.85   -5.8302829 
      80   -5.8949849         3.68         3.68         3.68   -47710.797   -47710.797   -47710.797   -47710.797   -5.8949849 
      90   -5.9329498         3.64         3.64         3.64   -31813.798   -31813.798   -31813.798   -31813.798   -5.9329498 
     100   -5.9689608          3.6          3.6          3.6   -48911.254   -48911.254   -48911.254   -48911.254   -5.9689608 
     110   -6.0354071         3.56         3.56         3.56   -83830.618   -83830.618   -83830.618   -83830.618   -6.0354071 
     120   -6.1247853         3.52         3.52         3.52   -105730.99   -105730.99   -105730.99   -105730.99   -6.1247853 
     130   -6.2286121         3.48         3.48         3.48   -118495.83   -118495.83   -118495.83   -118495.83   -6.2286121 
     140    -6.334295         3.44         3.44         3.44   -113249.49   -113249.49   -113249.49   -113249.49    -6.334295 
     150   -6.4207047          3.4          3.4          3.4    -82369.99    -82369.99    -82369.99    -82369.99   -6.4207047 
     160   -6.4868762         3.36         3.36         3.36   -71610.093   -71610.093   -71610.093   -71610.093   -6.4868762 
     170   -6.5413648         3.32         3.32         3.32   -56725.635   -56725.635   -56725.635   -56725.635   -6.5413648 
     180   -6.5798594         3.28         3.28         3.28   -36661.996   -36661.996   -36661.996   -36661.996   -6.5798594 
     190   -6.6003279         3.24         3.24         3.24   -13965.414   -13965.414   -13965.414   -13965.414   -6.6003279 
     200   -6.6032368     3.219112     3.219112     3.219112 2.6701633e-09 2.6636368e-09 2.6732182e-09 2.6736348e-09   -6.6032368 
     204   -6.6032368     3.219112     3.219112     3.219112 1.3838914e-10 1.4388804e-10 1.3897235e-10 1.3230701e-10   -6.6032368 
Loop time of 0.00814915 on 1 procs for 204 steps with 2 atoms

85.9% CPU use with 1 MPI tasks x no OpenMP threads

Minimization stats:
  Stopping criterion = energy tolerance
  Energy initial, next-to-last, final = 
        -4.30709189417     -6.60323678084     -6.60323678084
  Force two-norm initial, final = 30.1703 1.09415e-14
  Force max component initial, final = 30.1703 1.0741e-14
  Final line search alpha, max atom move = 1 1.0741e-14
  Iterations, force evaluations = 204 213

MPI task timing breakdown:
Section |  min time  |  avg time  |  max time  |%varavg| %total
---------------------------------------------------------------
Pair    | 0.0034986  | 0.0034986  | 0.0034986  |   0.0 | 42.93
Neigh   | 4.2915e-05 | 4.2915e-05 | 4.2915e-05 |   0.0 |  0.53
Comm    | 0.0010502  | 0.0010502  | 0.0010502  |   0.0 | 12.89
Output  | 0.00039792 | 0.00039792 | 0.00039792 |   0.0 |  4.88
Modify  | 0          | 0          | 0          |   0.0 |  0.00
Other   |            | 0.00316    |            |       | 38.77

Nlocal:    2 ave 2 max 2 min
Histogram: 1 0 0 0 0 0 0 0 0 0
Nghost:    557 ave 557 max 557 min
Histogram: 1 0 0 0 0 0 0 0 0 0
Neighs:    136 ave 136 max 136 min
Histogram: 1 0 0 0 0 0 0 0 0 0

Total # of neighbors = 136
Ave neighs/atom = 68
Neighbor list builds = 1
Dangerous builds = 0
System init for write_data ...
Neighbor list info ...
  1 neighbor list requests
  update every 1 steps, delay 10 steps, check yes
  max neighbors/atom: 2000, page size: 100000
  master list distance cutoff = 8.6825
  ghost atom cutoff = 8.6825
  binsize = 4.34125, bins = 1 1 1
ERROR: Compute used in variable between runs is not current (../variable.cpp:1301)
-------------------------------------------------------
Primary job  terminated normally, but 1 process returned
a non-zero exit code.. Per user-direction, the job has been aborted.
-------------------------------------------------------
--------------------------------------------------------------------------
mpirun detected that one or more processes exited with non-zero status, thus causing
the job to be terminated. The first process to do so was:

  Process name: [[8743,1],0]
  Exit code:    1
--------------------------------------------------------------------------
