LAMMPS (17 Nov 2016)
Lattice spacing in x,y,z = 4 4 4
Created orthogonal box = (0 0 0) to (4 4 4)
  1 by 1 by 1 MPI processor grid
Lattice spacing in x,y,z = 4 4 4
Created 1 atoms
Replicating atoms ...
  orthogonal box = (0 0 0) to (4 4 4)
  1 by 1 by 1 MPI processor grid
  1 atoms
Reading potential file LAMMPS_POTENTIALS/AlCu.eam.alloy with DATE: 2008-10-01
WARNING: Resetting reneighboring criteria during minimization (../min.cpp:168)
Neighbor list info ...
  1 neighbor list requests
  update every 1 steps, delay 0 steps, check yes
  max neighbors/atom: 2000, page size: 100000
  master list distance cutoff = 8.6825
  ghost atom cutoff = 8.6825
  binsize = 4.34125, bins = 1 1 1
Setting up cg style minimization ...
  Unit style    : metal
Memory usage per processor = 3.90684 Mbytes
Step PotEng Lx Ly Lz Press Pxx Pyy Pzz c_eatoms 
       0  -0.38249397            4            4            4   -31640.029   -31640.029   -31640.029   -31640.029  -0.38249397 
      10  -0.42240657         3.96         3.96         3.96   -35741.467   -35741.467   -35741.467   -35741.467  -0.42240657 
      20  -0.46660026         3.92         3.92         3.92   -40390.416   -40390.416   -40390.416   -40390.416  -0.46660026 
      30  -0.51554135         3.88         3.88         3.88    -45658.07    -45658.07    -45658.07    -45658.07  -0.51554135 
      40   -0.5706555         3.84         3.84         3.84   -51763.649   -51763.649   -51763.649   -51763.649   -0.5706555 
      50  -0.63084437          3.8          3.8          3.8   -58538.145   -58538.145   -58538.145   -58538.145  -0.63084437 
      60  -0.69748749         3.76         3.76         3.76   -66187.261   -66187.261   -66187.261   -66187.261  -0.69748749 
      70   -0.7712368         3.72         3.72         3.72   -74800.862   -74800.862   -74800.862   -74800.862   -0.7712368 
      80  -0.85277825         3.68         3.68         3.68   -84464.008   -84464.008   -84464.008   -84464.008  -0.85277825 
      90  -0.94281627         3.64         3.64         3.64   -95247.777   -95247.777   -95247.777   -95247.777  -0.94281627 
     100   -1.0420481          3.6          3.6          3.6   -107194.93   -107194.93   -107194.93   -107194.93   -1.0420481 
     110   -1.1511234         3.56         3.56         3.56   -120297.97   -120297.97   -120297.97   -120297.97   -1.1511234 
     120   -1.2705827         3.52         3.52         3.52   -134466.17   -134466.17   -134466.17   -134466.17   -1.2705827 
     130   -1.4007653         3.48         3.48         3.48    -149476.4    -149476.4    -149476.4    -149476.4   -1.4007653 
     140   -1.5416748         3.44         3.44         3.44   -164900.68   -164900.68   -164900.68   -164900.68   -1.5416748 
     150    -1.692784          3.4          3.4          3.4   -179999.94   -179999.94   -179999.94   -179999.94    -1.692784 
     160    -1.852754         3.36         3.36         3.36   -193569.16   -193569.16   -193569.16   -193569.16    -1.852754 
     170     -2.01966         3.32         3.32         3.32   -203819.23   -203819.23   -203819.23   -203819.23     -2.01966 
     180   -2.1880091         3.28         3.28         3.28   -207623.11   -207623.11   -207623.11   -207623.11   -2.1880091 
     190   -2.3514218         3.24         3.24         3.24   -200673.89   -200673.89   -200673.89   -200673.89   -2.3514218 
     200   -2.4994854          3.2          3.2          3.2   -178739.66   -178739.66   -178739.66   -178739.66   -2.4994854 
     210   -2.6246044         3.16         3.16         3.16   -150298.34   -150298.34   -150298.34   -150298.34   -2.6246044 
     220   -2.7230268         3.12         3.12         3.12   -115137.72   -115137.72   -115137.72   -115137.72   -2.7230268 
     230   -2.7919632         3.08         3.08         3.08   -75930.907   -75930.907   -75930.907   -75930.907   -2.7919632 
     240   -2.8317887         3.04         3.04         3.04   -38485.199   -38485.199   -38485.199   -38485.199   -2.8317887 
     250   -2.8484914            3            3            3     -13689.3     -13689.3     -13689.3     -13689.3   -2.8484914 
     260   -2.8585522         2.96         2.96         2.96   -20964.252   -20964.252   -20964.252   -20964.252   -2.8585522 
     270   -2.8843254         2.92         2.92         2.92   -53963.656   -53963.656   -53963.656   -53963.656   -2.8843254 
     280   -2.9247111         2.88         2.88         2.88    -73073.98    -73073.98    -73073.98    -73073.98   -2.9247111 
     290   -2.9723972         2.84         2.84         2.84    -79587.19    -79587.19    -79587.19    -79587.19   -2.9723972 
     300   -3.0156666          2.8          2.8          2.8   -59643.375   -59643.375   -59643.375   -59643.375   -3.0156666 
     310    -3.041422         2.76         2.76         2.76   -36061.699   -36061.699   -36061.699   -36061.699    -3.041422 
     320   -3.0581751         2.72         2.72         2.72   -19013.823   -19013.823   -19013.823   -19013.823   -3.0581751 
     330   -3.0626545    2.6870532    2.6870532    2.6870532 -0.017154928 -0.017154928 -0.017154928 -0.017154928   -3.0626545 
     333   -3.0626545    2.6870532    2.6870532    2.6870532 -1.7090327e-10 -1.7227614e-10 -1.737557e-10 -1.6667797e-10   -3.0626545 
Loop time of 0.00769496 on 1 procs for 333 steps with 1 atoms

78.0% CPU use with 1 MPI tasks x no OpenMP threads

Minimization stats:
  Stopping criterion = energy tolerance
  Energy initial, next-to-last, final = 
       -0.382493971653     -3.06265447774     -3.06265447774
  Force two-norm initial, final = 3.79165 9.24222e-15
  Force max component initial, final = 3.79165 9.24217e-15
  Final line search alpha, max atom move = 1 9.24217e-15
  Iterations, force evaluations = 333 338

MPI task timing breakdown:
Section |  min time  |  avg time  |  max time  |%varavg| %total
---------------------------------------------------------------
Pair    | 0.0027523  | 0.0027523  | 0.0027523  |   0.0 | 35.77
Neigh   | 4.3154e-05 | 4.3154e-05 | 4.3154e-05 |   0.0 |  0.56
Comm    | 0.0011883  | 0.0011883  | 0.0011883  |   0.0 | 15.44
Output  | 0.00060606 | 0.00060606 | 0.00060606 |   0.0 |  7.88
Modify  | 0          | 0          | 0          |   0.0 |  0.00
Other   |            | 0.003105   |            |       | 40.35

Nlocal:    1 ave 1 max 1 min
Histogram: 1 0 0 0 0 0 0 0 0 0
Nghost:    511 ave 511 max 511 min
Histogram: 1 0 0 0 0 0 0 0 0 0
Neighs:    61 ave 61 max 61 min
Histogram: 1 0 0 0 0 0 0 0 0 0

Total # of neighbors = 61
Ave neighs/atom = 61
Neighbor list builds = 2
Dangerous builds = 0
System init for write_data ...
Neighbor list info ...
  1 neighbor list requests
  update every 1 steps, delay 10 steps, check yes
  max neighbors/atom: 2000, page size: 100000
  master list distance cutoff = 8.6825
  ghost atom cutoff = 8.6825
  binsize = 4.34125, bins = 1 1 1
ERROR: Compute used in variable between runs is not current (../variable.cpp:1301)
-------------------------------------------------------
Primary job  terminated normally, but 1 process returned
a non-zero exit code.. Per user-direction, the job has been aborted.
-------------------------------------------------------
--------------------------------------------------------------------------
mpirun detected that one or more processes exited with non-zero status, thus causing
the job to be terminated. The first process to do so was:

  Process name: [[8742,1],0]
  Exit code:    1
--------------------------------------------------------------------------
